% Model:              thermal_design_point_30hz.mph
% Version:            COMSOL 6.2.0.290
% Date:               Nov 4 2025, 20:41
% Dimension:          1
% Nodes:              151
% Expressions:        4
% Description:        点结果图
% 时间 (s)                  温度                       温度                       温度                       温度
0                         303.1499999706016        303.1499999768982        303.1499999766587        303.1499999831119
0.03333333333333333       303.07791868384544       303.08963339052957       303.0906544804304        303.10045764914554
0.06666666666666667       303.01715352036695       303.03502066147996       303.0370932274557        303.0496986555358
0.1                       302.97484319376935       302.99314800764625       302.9951539942308        303.00581799558677
0.13333333333333333       302.93254338146664       302.94892914870223       302.94981195246817       302.9580165999765
0.16666666666666666       302.87034333270185       302.88254697733987       302.8816582691914        302.88660900551906
0.2                       302.7121955160862        302.7226806543656        302.7212129509577        302.725545970898
0.23333333333333334       302.55404769947046       302.56281433139134       302.560767632724         302.56448293627693
0.26666666666666666       302.3958998828548        302.40294800841707       302.40032231449027       302.4034199016558
0.3                       302.23775206623907       302.2430816854428        302.23987699625656       302.24235686703474
0.3333333333333333        302.0617408078428        302.06583131026804       302.06234335131          302.0643056775795
0.36666666666666664       301.8589030144121        301.8624743263485        301.8591472052131        301.86074242071714
0.4                       301.6560652209813        301.659117342429         301.6559510591162        301.6571791638548
0.43333333333333335       301.45322742755053       301.45576035850945       301.45275491301925       301.45361590699235
0.4666666666666667        301.2503896341198        301.25240337458996       301.24955876692235       301.25005265012993
0.5                       301.04755184068904       301.0490463906704        301.04636262082545       301.04648939326756
0.5333333333333333        300.84471404725826       300.8456894067509        300.84316647472855       300.84292613640514
0.5666666666666667        300.6418762538275        300.6423324228314        300.63997032863165       300.6393628795427
0.6                       300.4390384603968        300.4389754389118        300.43677418253475       300.43579962268035
0.6333333333333333        300.236200666966         300.23561845499233       300.2335780364378        300.2322363658179
0.6666666666666666        300.06133254856064       300.06061036483345       300.0586960246019        300.0573100467524
0.7                       299.89346828525595       299.8927010895155        299.8909041235194        299.88955467131325
0.7333333333333333        299.7256040219513        299.7247918141976        299.72311222243684       299.7217992958741
0.7666666666666666        299.5577397586467        299.5568825388796        299.5553203213543        299.554043920435
0.8                       299.389875495342         299.3889732635617        299.3875284202718        299.38628854499586
0.8333333333333334        299.22201123203735       299.2210639882437        299.21973651918927       299.21853316955674
0.8666666666666667        299.0541469687327        299.0531547129258        299.05194461810675       299.05077779411766
0.9                       298.8862827054281        298.8852454376078        298.8841527170242        298.88302241867854
0.9333333333333333        298.7184184421234        298.7173361622899        298.7163608159417        298.7152670432394
0.9666666666666667        298.55055417881874       298.54942688697196       298.5485689148592        298.5475116678003
1                         298.3826899155141        298.381517611654         298.38077701377665       298.37975629236115
1.0333333333333332        298.21482565220947       298.21360833633605       298.2129851126941        298.212000916922
1.0666666666666667        298.0469613889048        298.04569906101807       298.0451932116116        298.0442455414829
1.1                       297.87909712560014       297.87778978570014       297.8774013105291        297.87649016604377
1.1333333333333333        297.7112328622955        297.7098805103822        297.70960940944656       297.7087347906047
1.1666666666666667        297.57642923018807       297.57508861877426       297.5748709988901        297.57421367786935
1.2                       297.4499042738333        297.4485896142524        297.4484094759989        297.4480147197585
1.2333333333333334        297.32337931747855       297.3220906097305        297.3219479531077        297.3218157616476
1.2666666666666666        297.19685436112377       297.1955916052086        297.1954864302165        297.1956168035367
1.3                       297.07032940476904       297.06909260068676       297.0690249073253        297.06941784542585
1.3333333333333333        296.9438044484143        296.94259359616484       296.94256338443404       296.9432188873149
1.3666666666666667        296.8172794920595        296.816094591643         296.81610186154285       296.81701992920404
1.4                       296.6907545357048        296.6895955871211        296.6896403386516        296.6908209710932
1.4333333333333333        296.56422957935007       296.5630965825992        296.5631788157604        296.5646220129823
1.4666666666666666        296.4377046229953        296.4365975780773        296.4367172928692        296.4384230548714
1.5                       296.31117966664056       296.3100985735554        296.310255769978         296.31222409676053
1.5333333333333332        296.1846547102858        296.18359956903356       296.1837942470868        296.18602513864965
1.5666666666666667        296.05812975393104       296.05710056451164       296.05733272419553       296.0598261805387
1.6                       295.9316047975763        295.9306015599898        295.93087120130434       295.93362722242784
1.6333333333333333        295.8050798412216        295.8041025554679        295.80440967841315       295.80742826431697
1.6666666666666667        295.70365689055325       295.7027025769581        295.70303015092014       295.7064153010493
1.7                       295.6085197051077        295.60758761753397       295.60793137789585       295.6117091346352
1.7333333333333334        295.51338251966206       295.51247265810986       295.5128326048716        295.51700296822116
1.7666666666666666        295.41824533421646       295.41735769868575       295.4177338318474        295.42229680180714
1.8                       295.3231081487709        295.32224273926164       295.3226350588231        295.32759063539305
1.8333333333333333        295.22797096332533       295.22712777983753       295.22753628579886       295.232884468979
1.8666666666666667        295.1328337778797        295.1320128204134        295.13243751277463       295.138178302565
1.9                       295.03769659243414       295.0368978609893        295.03733873975034       295.04347213615097
1.9333333333333333        294.94255940698855       294.94178290156526       294.9422399667261        294.94876596973694
1.9666666666666666        294.84742222154296       294.84666794214115       294.8471411937019        294.8540598033229
2                         294.75228503609736       294.75155298271704       294.7520424206776        294.7593536369088
2.033333333333333         294.65714785065177       294.65643802329294       294.65694364765335       294.6646474704948
2.0666666666666664        294.5620106652062        294.5613230638688        294.5618448746291        294.56994130408077
2.1                       294.4668734797606        294.4662081044447        294.4667461016048        294.47523513766674
2.1333333333333333        294.371736294315         294.37109314502067       294.3716473285806        294.38052897125266
2.1666666666666665        294.29454835192644       294.29392418954393       294.29449978194395       294.3038824250511
2.2                       294.2218550594551        294.2212490728827        294.2218473818682        294.2317581681871
2.2333333333333334        294.14916176698375       294.14857395622147       294.14919498179245       294.15963391132306
2.2666666666666666        294.07646847451247       294.0758988395602        294.0765425817167        294.08750965445904
2.3                       294.0037751820411        294.00322372289895       294.00389018164094       294.015385397595
2.3333333333333335        293.9310818895698        293.93054860623766       293.9312377815652        293.94326114073107
2.3666666666666667        293.85838859709844       293.85787348957643       293.85858538148943       293.871136883867
2.4                       293.78569530462715       293.7851983729152        293.7859329814137        293.799012627003
2.433333333333333         293.7130020121558        293.7125232562539        293.7132805813379        293.72688837013897
2.466666666666667         293.64030871968447       293.6398481395927        293.6406281812621        293.65476411327495
2.5                       293.5676154272131        293.56717302293146       293.56797578118636       293.58263985641094
2.533333333333333         293.49492213474184       293.49449790627017       293.4953233811106        293.5105155995469
2.5666666666666664        293.4222288422705        293.42182278960894       293.42267098103486       293.4383913426829
2.6                       293.34953554979916       293.3491476729477        293.3500185809591        293.3662670858189
2.6333333333333333        293.27684225732787       293.2764725562864        293.27736618088335       293.2941428289549
2.6666666666666665        293.20924719166067       293.2088951380098        293.20981561942125       293.22716440706165
2.7                       293.1436549245456        293.1433203106997        293.1442692753825        293.16220748621674
2.7333333333333334        293.0788696161188        293.07855235843857       293.0795304617173        293.0980650595867
2.7666666666666666        293.01489126638035       293.01459128122616       293.01559917842553       293.0347371271715
2.8                       292.9517198753301        292.95143707906266       292.9524754255073        292.9722236889712
2.8333333333333335        292.8893554429681        292.889089751948         292.8901592029626        292.91052474498576
2.8666666666666667        292.82779796929435       292.8275492998821        292.8286505107914        292.8496402952151
2.9                       292.7670474543089        292.7668157228651        292.7679493489938        292.7895703396594
2.933333333333333         292.70710389801167       292.7068890208969        292.7080557175696        292.73031487831855
2.966666666666667         292.6479673004027        292.6477691939775        292.64896961651897       292.67187391119256
3                         292.589637661482         292.589456242107         292.5906910458418        292.61424743828144
3.033333333333333         292.5321149812496        292.5319501652853        292.5332200055382        292.5574354595851
3.0666666666666664        292.4753992597054        292.47525096351245       292.4765564956082        292.50143797510367
3.1                       292.4194904968495        292.41935863678844       292.42070051605157       292.44625498483714
3.1333333333333333        292.3643886926818        292.3642731851133        292.36565206686856       292.3918864887854
3.1666666666666665        292.31028976088703       292.3101903188978        292.3116096408132        292.3385480525715
3.2                       292.2570747509402        292.25699121103634       292.2584527214584        292.2861087938425
3.2333333333333334        292.20469770933573       292.2046299557033        292.20613475035213       292.2345181495352
3.2666666666666666        292.15315863607367       292.15310655289863       292.1546557274944        292.1837761196493
3.3                       292.102457531154         292.10242100262224       292.1040156528852        292.133882704185
3.3333333333333335        292.05259439457683       292.0525733048743        292.0542145265245        292.0848379031423
3.3666666666666667        292.00356922634194       292.00356345965463       292.0052523484124        292.0366417165211
3.4                       291.9553820264495        291.9553914669634        291.9571291185488        291.9892941443215
3.433333333333333         291.90803279489944       291.9080573268005        291.90984483693376       291.9427951865434
3.466666666666667         291.86152153169184       291.8615610391659        291.8633995035672        291.8971448431868
3.5                       291.8158482368265        291.8159026040597        291.81779311844923       291.8523431142519
3.533333333333333         291.7710129103037        291.7710820214819        291.7730256815797        291.80838999973844
3.5666666666666664        291.7270155521232        291.7270992914324        291.7290971929589        291.7652854996465
3.6                       291.6838561622851        291.6839544139113        291.6860076525864        291.7230296139762
3.6333333333333333        291.6415347407895        291.64164738891856       291.6437570604626        291.6816223427274
3.6666666666666665        291.5993055176999        291.5994320637425        291.60160197530166       291.64032798718887
3.6999999999999997        291.55762129306225       291.55776147083395       291.55999378329096       291.59959323258346
3.7333333333333334        291.51665699464127       291.51681062774145       291.5191068659871        291.5595906443697
3.7666666666666666        291.4764126224369        291.4765795344651        291.47894122339          291.5203202225476
3.8                       291.43688817644914       291.43706819100476       291.4394968554997        291.4817819671173
3.8333333333333335        291.3980836566781        291.3982765973605        291.40077376231625       291.4439758780786
3.8666666666666667        291.35999906312367       291.3602047535323        291.3627719438395        291.4069019554317
3.9                       291.3226343957859        291.32285265952015       291.32549140006967       291.3705601991765
3.933333333333333         291.2859896546648        291.2862203153241        291.2889321310065        291.33495060931295
3.966666666666667         291.2500648397603        291.2503077209441        291.25309413665025       291.3000731858412
4                         291.2148599510724        291.21511487638014       291.2179774170007        291.26592792876113
4.033333333333333         291.1803749886013        291.1806417816323        291.183581972058         291.23251483807275
4.066666666666666         291.1466099523467        291.1468884367005        291.1499078018221        291.19983391377605
4.1                       291.1135648423088        291.1138548415848        291.11695490629296       291.16788515587115
4.133333333333333         291.08123965848756       291.08154099628507       291.08472328547066       291.1366685643579
4.166666666666667         291.04857807156645       291.04889053220825       291.05215910627265       291.10512560980277
4.2                       291.01622144014624       291.01654483180226       291.0199022116919        291.073898986625
4.233333333333333         290.98441753678685       290.98475167683966       290.9881997887715        291.0432369834437
4.266666666666667         290.95316636148834       290.9535110673205        290.95705183751164       291.01313960025885
4.3                       290.9224679142506        290.92282300324484       290.92645835791217       290.98360683707045
4.333333333333333         290.8923221950737        290.8926874846125        290.8964193499732        290.95463869387856
4.366666666666666         290.8627292039576        290.8631045114237        290.8669348136947        290.9262351706831
4.4                       290.8336889409024        290.8340740836783        290.8380047490766        290.8983962674842
4.433333333333334         290.80520140590795       290.8055962013763        290.809629156119         290.8711219842817
4.466666666666667         290.77726659897434       290.7776708645178        290.7818080348219        290.84441232107565
4.5                       290.74988452010155       290.75029807310267       290.7545413851852        290.81826727786614
4.533333333333333         290.7230551692896        290.72347782713103       290.72782920720897       290.792686854653
4.566666666666666         290.6967785465384        290.69721012660284       290.7016715008932        290.7676710514364
4.6                       290.6710546518481        290.67149497151803       290.67606826623785       290.7432198682163
4.633333333333333         290.6458834852186        290.64633236187666       290.651019503243         290.71933330499263
4.666666666666667         290.62035931997275       290.62081728574867       290.6256225152561        290.6950943731261
4.7                       290.5950320751418        290.595499228201         290.60042538160513       290.6710598294362
4.733333333333333         290.57011419793685       290.57059046879374       290.57563983877895       290.64744476273955
4.766666666666667         290.54560568835797       290.54609100752685       290.5512658867774        290.6242491730362
4.8                       290.5215065464051        290.52200084440034       290.52730352560064       290.60147306032604
4.833333333333333         290.49781677207824       290.4983199794143        290.5037527552485        290.5791164246091
4.866666666666666         290.4745363653774        290.4750484125686        290.4806135757211        290.55717926588534
4.9                       290.45166532630265       290.45218614386334       290.45788598701847       290.5356615841549
4.933333333333334         290.42920365485384       290.4297331732985        290.43556998914045       290.5145633794176
4.966666666666667         290.4071513510311        290.407689500874         290.4136655820872        290.49388465167357
5                         290.38550841483436       290.38605512658995       290.3921727658586        290.4736254009228
