% Model:              thermal_design_01.mph
% Version:            COMSOL 6.2.0.290
% Date:               Nov 2 2025, 03:39
% Dimension:          1
% Nodes:              251
% Expressions:        1
% Description:        点结果图
% 时间 (s)                  温度
0                         308.1459183506629
0.02                      306.89731165994897
0.04                      307.54219944436676
0.06                      307.43233651526657
0.08                      307.32209909425137
0.1                       306.78609222335825
0.12                      306.24987577078156
0.14                      305.7136593182049
0.16                      305.1774428656283
0.18                      304.68305027713444
0.2                       304.18867794119313
0.22                      303.6943056052518
0.24                      303.1999332693105
0.26                      302.7055609333692
0.28                      302.2111885974279
0.3                       301.7168162614866
0.32                      301.2224439255453
0.34                      300.94713090525005
0.36                      300.6719204527163
0.38                      300.3967100001825
0.4                       300.1214995476487
0.42                      299.8462890951149
0.44                      299.57107864258114
0.46                      299.2958681900474
0.48                      299.0206577375136
0.5                       298.74544728497983
0.52                      298.470236832446
0.54                      298.19502637991224
0.56                      297.91981592737847
0.58                      297.6446054748447
0.6                       297.36939502231087
0.62                      297.0941845697771
0.64                      296.81897411724333
0.66                      296.6711917620973
0.68                      296.5234649898359
0.7000000000000001        296.3757382175745
0.72                      296.22801144531303
0.74                      296.0802846730516
0.76                      295.93255790079024
0.78                      295.7848311285288
0.8                       295.6371043562674
0.8200000000000001        295.489377584006
0.84                      295.34165081174456
0.86                      295.19392403948314
0.88                      295.0461972672217
0.9                       294.8984704949603
0.92                      294.75074372269887
0.9400000000000001        294.60301695043745
0.96                      294.455290178176
0.98                      294.3886539729029
1                         294.32205054145953
1.02                      294.2554471100161
1.04                      294.1888436785727
1.06                      294.1222402471293
1.08                      294.05563681568594
1.1                       293.9890333842425
1.12                      293.9224299527991
1.1400000000000001        293.8558265213557
1.16                      293.7892230899123
1.18                      293.7226196584689
1.2                       293.6560162270255
1.22                      293.58941279558206
1.24                      293.52280936413865
1.26                      293.45620593269524
1.28                      293.3896025012519
1.3                       293.3229990698085
1.32                      293.25639563836506
1.34                      293.18979220692165
1.36                      293.12318877547824
1.3800000000000001        293.05658534403483
1.4000000000000001        292.9899819125914
1.42                      292.92337848114806
1.44                      292.85677504970465
1.46                      292.79017161826124
1.48                      292.7584884028863
1.5                       292.72681930098054
1.52                      292.69515019907476
1.54                      292.663481097169
1.56                      292.6318119952632
1.58                      292.60014289335743
1.6                       292.56847379145165
1.62                      292.5368046895459
1.6400000000000001        292.5051355876401
1.6600000000000001        292.4734664857343
1.68                      292.44179738382854
1.7                       292.4101282819228
1.72                      292.378459180017
1.74                      292.34679007811127
1.76                      292.3151209762055
1.78                      292.2834518742997
1.8                       292.25178277239394
1.82                      292.22011367048816
1.84                      292.1884445685824
1.86                      292.1567754666766
1.8800000000000001        292.12510636477083
1.9000000000000001        292.09343726286505
1.92                      292.0617681609593
1.94                      292.0300990590535
1.96                      291.9984299571477
1.98                      291.9824554675813
2                         291.9664873212009
2.02                      291.9505191748205
2.04                      291.93455102844007
2.06                      291.9185828820597
2.08                      291.90261473567926
2.1                       291.8866465892989
2.12                      291.8706784429185
2.14                      291.8547102965381
2.16                      291.8387421501577
2.18                      291.8227740037773
2.2                       291.80680585739685
2.22                      291.7908377110165
2.24                      291.77486956463605
2.2600000000000002        291.7589014182557
2.2800000000000002        291.74293327187524
2.3000000000000003        291.72696512549487
2.32                      291.7109969791145
2.34                      291.69502883273407
2.36                      291.6790606863537
2.38                      291.66309253997326
2.4                       291.6471243935929
2.42                      291.63115624721246
2.44                      291.6151881008321
2.46                      291.5992199544517
2.48                      291.5909185242509
2.5                       291.5826201926554
2.52                      291.57432186105984
2.54                      291.5660235294643
2.56                      291.55772519786876
2.58                      291.5494268662732
2.6                       291.5411285346777
2.62                      291.53283020308214
2.64                      291.5245318714866
2.66                      291.51623353989106
2.68                      291.5079352082955
2.7                       291.4996368767
2.72                      291.49133854510444
2.74                      291.4830402135089
2.7600000000000002        291.47474188191336
2.7800000000000002        291.4664435503178
2.8000000000000003        291.4581452187223
2.82                      291.44984688712674
2.84                      291.4415485555312
2.86                      291.43325022393566
2.88                      291.4249518923401
2.9                       291.4166535607446
2.92                      291.40835522914904
2.94                      291.4000568975535
2.96                      291.39175856595796
2.98                      291.38717320995386
3                         291.3825893545982
3.02                      291.3780054992426
3.04                      291.37342164388696
3.06                      291.3688377885313
3.08                      291.3642539331757
3.1                       291.35967007782006
3.12                      291.35508622246437
3.14                      291.35050236710873
3.16                      291.3459185117531
3.18                      291.34133465639746
3.2                       291.33675080104183
3.22                      291.3321669456862
3.24                      291.32758309033056
3.2600000000000002        291.32299923497493
3.2800000000000002        291.31841537961924
3.3000000000000003        291.3138315242636
3.3200000000000003        291.309247668908
3.34                      291.30466381355234
3.36                      291.3000799581967
3.38                      291.29549610284107
3.4                       291.29091224748544
3.42                      291.28632839212975
3.44                      291.2817445367741
3.46                      291.2771606814185
3.48                      291.27519019984334
3.5                       291.273220774498
3.52                      291.2712513491526
3.54                      291.2692819238072
3.56                      291.26731249846176
3.58                      291.2653430731164
3.6                       291.263373647771
3.62                      291.2614042224256
3.64                      291.25943479708025
3.66                      291.25746537173484
3.68                      291.2554959463895
3.7                       291.2535265210441
3.72                      291.2515570956987
3.74                      291.2495876703533
3.7600000000000002        291.2476182450079
3.7800000000000002        291.24564881966256
3.8000000000000003        291.24367939431716
3.8200000000000003        291.24170996897175
3.84                      291.2397405436264
3.86                      291.237771118281
3.88                      291.2358016929356
3.9                       291.2338322675902
3.92                      291.2318628422448
3.94                      291.2298934168994
3.96                      291.227923991554
3.98                      291.22671423136285
4                         291.2255632266985
4.0200000000000005        291.2244706823413
4.04                      291.2234365982911
4.0600000000000005        291.22246097454797
4.08                      291.221543811112
4.1                       291.22068510798294
4.12                      291.21988486516113
4.14                      291.21914308264627
4.16                      291.2184597604385
4.18                      291.2178348985379
4.2                       291.2172684969443
4.22                      291.21676055565774
4.24                      291.21631107467834
4.26                      291.21592005400595
4.28                      291.2155874936406
4.3                       291.21531339358245
4.32                      291.21509775383123
4.34                      291.2149405743872
4.36                      291.21484185525014
4.38                      291.2148015964202
4.4                       291.21481979789735
4.42                      291.2148964596816
4.44                      291.21503158177285
4.46                      291.2152251641712
4.48                      291.2152194591982
4.5                       291.2152522793008
4.5200000000000005        291.2153237246445
4.54                      291.21543379522944
4.5600000000000005        291.21558249105544
4.58                      291.2157698121226
4.6000000000000005        291.21599575843084
4.62                      291.21626032998023
4.64                      291.21656352677076
4.66                      291.2169053488024
4.68                      291.2172857960752
4.7                       291.2177048685891
4.72                      291.2181625663441
4.74                      291.2186588893403
4.76                      291.21919383757756
4.78                      291.219767411056
4.8                       291.22037960977553
4.82                      291.2210304337362
4.84                      291.22171988293803
4.86                      291.2224479573809
4.88                      291.22321465706494
4.9                       291.2240199819902
4.92                      291.22486393215644
4.94                      291.2257465075639
4.96                      291.22666770821246
4.98                      291.22747433452935
5                         291.2283077370226
