% Model:              thermal_design_point_30hz.mph
% Version:            COMSOL 6.2.0.290
% Date:               Nov 8 2025, 11:53
% Dimension:          1
% Nodes:              151
% Expressions:        4
% Description:        点结果图
% 时间 (s)                  温度                       温度                       温度                       温度
0                         310.1499999779514        310.1499999826739        310.149999982494         310.14999998733407
0.03333333333333333       310.0955285946933        310.1043606026187        310.10514419252576       310.11257304542926
0.06666666666666667       310.04806411396737       310.0616925776197        310.0633142159481        310.0731663897451
0.1                       310.0129284480723        310.0271487571327        310.02875657850456       310.0375817850989
0.13333333333333333       309.97643764390295       309.98950683882384       309.9902634231019        309.9976242330715
0.16666666666666666       309.9209526466624        309.93117764139873       309.9305591111727        309.9357965001122
0.2                       309.7822497128785        309.79135270725334       309.7902340396143        309.79510234147114
0.23333333333333334       309.64354677909466       309.65152777310794       309.6499089680559        309.65440818283
0.26666666666666666       309.5048438453108        309.5117028389626        309.5095838964974        309.5137140241889
0.3                       309.36614091152694       309.37187790481727       309.369258824939         309.37301986554786
0.3333333333333333        309.2055511320375        309.21044293309075       309.2075735234455        309.211021853999
0.36666666666666664       309.0120926455917        309.01655495273417       309.0138103635112        309.0170306485616
0.4                       308.8186341591458        308.82266697237765       308.82004720357696       308.82303944312423
0.43333333333333335       308.6251756726999        308.628778992021         308.62628404364267       308.62904823768685
0.4666666666666667        308.4317171862541        308.4348910116645        308.43252088370843       308.4350570322495
0.5                       308.2382586998083        308.2410030313079        308.23875772377414       308.24106582681213
0.5333333333333333        308.0448002133624        308.04711505095133       308.0449945638399        308.04707462137475
0.5666666666666667        307.8513417269166        307.85322707059476       307.8512314039056        307.85308341593736
0.6                       307.6578832404707        307.6593390902382        307.6574682439714        307.6590922105
0.6333333333333333        307.4644247540249        307.4654511098816        307.46370508403714       307.4651010050626
0.6666666666666666        307.2875572685231        307.28841417564416       307.28678168992127       307.28809543446573
0.7                       307.11484431704724       307.1155968930546        307.1140751227659        307.1153432177283
0.7333333333333333        306.94213136557147       306.94277961046504       306.94136855561044       306.9425910009909
0.7666666666666666        306.76941841409564       306.76996232787553       306.76866198845505       306.76983878425347
0.8                       306.5967054626198        306.59714504528597       306.59595542129966       306.59708656751604
0.8333333333333334        306.423992511144         306.42432776269646       306.4232488541443        306.4243343507786
0.8666666666666667        306.25127955966815       306.2515104801069        306.2505422869889        306.2515821340412
0.9                       306.0785666081923        306.07869319751734       306.0778357198335        306.0788299173037
0.9333333333333333        305.9058536567165        305.90587591492783       305.90512915267806       305.9060777005663
0.9666666666666667        305.73314070524066       305.73305863233827       305.73242258552267       305.7333254838289
1                         305.5604277537649        305.56024134974876       305.5597160183673        305.56057326709146
1.0333333333333332        305.38771480228905       305.3874240671592        305.3870094512119        305.38782105035403
1.0666666666666667        305.2150018508132        305.21460678456964       305.2143028840565        305.21506883361656
1.1                       305.0422888993374        305.04178950198013       305.0415963169011        305.04231661687913
1.1333333333333333        304.86957594786156       304.86897221939057       304.86888974974573       304.8695644001417
1.1666666666666667        304.7262015438243        304.72557010230986       304.72554535991185       304.7262885476547
1.2                       304.59017377270055       304.58953380398816       304.58955352012424       304.59039383863524
1.2333333333333334        304.4541460015769        304.4534975056665        304.45356168033663       304.45449912961584
1.2666666666666666        304.31811823045314       304.3174612073448        304.31756984054897       304.3186044205964
1.3                       304.18209045932946       304.1814249090232        304.18157800076136       304.182709711577
1.3333333333333333        304.0460626882057        304.0453886107015        304.0455861609738        304.04681500255754
1.3666666666666667        303.91003491708204       303.9093523123798        303.90959432118615       303.91092029353814
1.4                       303.77400714595836       303.77331601405814       303.77360248139854       303.7750255845187
1.4333333333333333        303.63797937483463       303.6372797157365        303.63761064161093       303.6391308754993
1.4666666666666666        303.5019516037109        303.5012434174148        303.5016188018233        303.50323616647984
1.5                       303.3659238325872        303.36520711909316       303.3656269620357        303.36734145746044
1.5333333333333332        303.22989606146353       303.22917082077146       303.2296351222481        303.231446748441
1.5666666666666667        303.0938682903398        303.0931345224498        303.09364328246045       303.0955520394216
1.6                       302.9578405192161        302.9570982241281        302.95765144267284       302.95965733040214
1.6333333333333333        302.82181274809244       302.8210619258065        302.82165960288523       302.8237626213827
1.6666666666666667        302.71126441110306       302.7105208292063        302.7111436302782        302.7134252002553
1.7                       302.6070963507727        302.6063639576092        302.6070070411332        302.60948755105943
1.7333333333333334        302.5029282904423        302.50220708601194       302.50287045198826       302.5055499018636
1.7666666666666666        302.398760230112         302.39805021441475       302.39873386284324       302.40161225266775
1.8                       302.2945921697816        302.29389334281757       302.2945972736983        302.29767460347193
1.8333333333333333        302.19042410945127       302.18973647122033       302.19046068455333       302.19373695427606
1.8666666666666667        302.08625604912095       302.08557959962314       302.0863240954084        302.08979930508025
1.9                       301.9820879887905        301.98142272802596       301.9821875062634        301.9858616558844
1.9333333333333333        301.8779199284602        301.8772658564288        301.87805091711846       301.88192400668856
1.9666666666666666        301.77375186812986       301.77310898483154       301.7739143279735        301.7779863574927
2                         301.6695838077995        301.66895211323435       301.66977773882854       301.6740487082969
2.033333333333333         301.56541574746916       301.56479524163717       301.5656411496836        301.570111059101
2.0666666666666664        301.4612476871388        301.46063837004          301.4615045605386        301.4661734099052
2.1                       301.3570796268084        301.35648149844275       301.3573679713936        301.3622357607093
2.1333333333333333        301.2529115664781        301.25232462684556       301.25323138224866       301.2582981115135
2.1666666666666665        301.15641694171836       301.15584226017967       301.1567677411065        301.1620582349366
2.2                       301.0629367661467        301.0623747627918        301.0633183576153        301.06884236816694
2.2333333333333334        300.9706711590399        300.9701220031296        300.9710834654155        300.9768449219843
2.2666666666666666        300.8796201203979        300.8790839811928        300.88006306450717       300.88606589638863
2.3                       300.78978365022056       300.78926069698167       300.79025715489024       300.79650529137984
2.3333333333333335        300.701161748508         300.700652150496         300.70166573656485       300.708163106958
2.3666666666666667        300.61375441526025       300.61325834173596       300.6142888095308        300.62103934312313
2.4                       300.5275616504772        300.5270792707014        300.5281263737882        300.53513399987514
2.433333333333333         300.4425834541589        300.4421149373924        300.4431784293371        300.45044707721416
2.466666666666667         300.3588198263054        300.35836534180896       300.35944497617743       300.3669785751401
2.5                       300.2762707669167        300.275830483951         300.27692601430914       300.28472849365295
2.533333333333333         300.1949362759927        300.1945103638186        300.19562154373233       300.20369683275277
2.5666666666666664        300.11481635353346       300.1144049814118        300.11553156444694       300.1238835924395
2.6                       300.035910999539         300.0355143367305        300.036656076453         300.04528877271315
2.6333333333333333        299.95822021400926       299.95783842977477       299.95899507975054       299.9679123735738
2.6666666666666665        299.8822792309176        299.8819113839286        299.88308508262827       299.89229409062216
2.7                       299.80776307877375       299.8074089020046        299.8086003398853        299.818106243456
2.7333333333333334        299.7345462131195        299.7342057000445        299.73541500816015       299.7452222410979
2.7666666666666666        299.6626286339548        299.66230177804823       299.6635290874528        299.673642083548
2.8                       299.5920103412797        299.5916971360158        299.5929425777631        299.6033657708061
2.8333333333333335        299.5226913350943        299.5223917739472        299.52365547909125       299.53439330287233
2.8666666666666667        299.45467161539835       299.4543856918425        299.4556677914372        299.4667246797467
2.9                       299.38795118219207       299.38767888970153       299.3889795148009        299.40035990142917
2.933333333333333         299.3225300354754        299.3222713675245        299.3235906491823        299.33529896791975
2.966666666666667         299.2584081752483        299.25816312531117       299.2595011945815        299.27154187921843
3                         299.1955856015108        299.1953541630618        299.19671115099845       299.2090886353252
3.033333333333333         299.1340623142629        299.1338444807762        299.1352205184332        299.1479392362401
3.0666666666666664        299.07383831350455       299.07363407845446       299.07502929688576       299.08809368196313
3.1                       299.01491359923585       299.0147229560965        299.016137486356         299.02955197249423
3.1333333333333333        298.9572881714567        298.9571111137024        298.9585450868441        298.9723141078335
3.1666666666666665        298.89997875485324       298.8998146063075        298.90126975283835       298.91539444419055
3.2                       298.8435823527176        298.8434308437876        298.8449079230942        298.8593914228967
3.2333333333333334        298.7883296020658        298.788190620232         298.7896900165333        298.8045362365175
3.2666666666666666        298.734220502898         298.73409393564083       298.7356160331558        298.750828885053
3.3                       298.6812550552141        298.68114079001396       298.6826859729615        298.69826936850336
3.3333333333333335        298.62943325901415       298.6293311833515        298.6308998359506        298.6468576868684
3.3666666666666667        298.5787551142981        298.5786651156534        298.5802576221229        298.5965938401482
3.4                       298.529220621066         298.5291425869197        298.5307593314785        298.5474778283428
3.433333333333333         298.4808297793178        298.48076359715026       298.4824049640174        298.49950965145206
3.466666666666667         298.4335825890536        298.4335281463453        298.4351945197397        298.4526893094761
3.5                       298.3874790502732        298.3874362345046        298.3891279986452        298.4070168024149
3.533333333333333         298.3425191629768        298.34248786162834       298.34420540073404       298.3624921302685
3.5666666666666664        298.29870292716436       298.2986830277164        298.30042672600615       298.31911529303676
3.6                       298.25603034283586       298.25602173276883       298.25779197446155       298.2768862907198
3.6333333333333333        298.2145014099912        298.2145039767856        298.21630114610025       298.23580512331756
3.6666666666666665        298.1725077413259        298.1725212310438        298.17434602830656       298.19425428120024
3.6999999999999997        298.13102588176304       298.1310501263299        298.13290305993996       298.153215847982
3.7333333333333334        298.090433094561         298.0904679590732        298.0923494632836        298.11306922665335
3.7666666666666666        298.05072937971966       298.0507747292736        298.0526852383375        298.0738144172144
3.8                       298.011914737239         298.0119704369312        298.0139103851017        298.03545141966504
3.8333333333333335        297.97398916711916       297.97405508204605       297.9760249035762        297.9979802340053
3.8666666666666667        297.9369526693601        297.93702866461797       297.93902879376094       297.9614008602352
3.9                       297.90080524396177       297.90089118464715       297.90292205565595       297.92571329835465
3.933333333333333         297.8655468909242        297.8656426421335        297.8677046892613        297.89091754836375
3.966666666666667         297.8311776102473        297.83128303707707       297.8333766945768        297.85701361026247
4                         297.7976974019312        297.79781236947775       297.7999380716027        297.8240014840509
4.033333333333333         297.7651062659758        297.7652306393356        297.7673888203388        297.7918811697288
4.066666666666666         297.7334042023813        297.7335378466507        297.73572894078524       297.7606526672964
4.1                       297.70259121114736       297.7027339914229        297.7049584329419        297.7303159767536
4.133333333333333         297.67266729227424       297.67281907365236       297.67507729680887       297.70087109810044
4.166666666666667         297.642151089824         297.6423118924721        297.64460402101207       297.6708237416975
4.2                       297.61194202063257       297.61211177056555       297.6144381167618        297.6410811771789
4.233333333333333         297.58238755148625       297.58256613834556       297.58492708730336       297.611993905059
4.266666666666667         297.553487682385         297.55367499581206       297.55607093263677       297.58356192533813
4.3                       297.52524241332884       297.52543834296506       297.52786965276204       297.55578523801614
4.333333333333333         297.4976517443178        297.4978561798046        297.5003232476791        297.52866384309306
4.366666666666666         297.47071567535187       297.4709285063306        297.47343171738805       297.502197740569
4.4                       297.44443420643097       297.44465532254316       297.44719506188886       297.4763869304437
4.433333333333334         297.4188073375552        297.41903662844226       297.4216132811815        297.45123141271733
4.466666666666667         297.3938350687245        297.39407242402785       297.396686375266         297.42673118738986
4.5                       297.3695173999389        297.36976270929995       297.3724143441423        297.4028862544613
4.533333333333333         297.3458543311985        297.3461074842586        297.34879718781053       297.37969661393174
4.566666666666666         297.3228458625031        297.32310674890374       297.3258349062706        297.35716226580104
4.6                       297.30049199385275       297.3007605032354        297.30352749952243       297.3352832100692
4.633333333333333         297.27879272524757       297.2790687472535        297.2818749675661        297.3140594467363
4.666666666666667         297.25661408208055       297.25689774971954       297.2597430636062        297.2923435986038
4.7                       297.23464456589744       297.2349358644163        297.23782045444983       297.2708323047058
4.733333333333333         297.21315016173423       297.2134490192951        297.2163731889775        297.24979469378934
4.766666666666667         297.19213086959087       297.1924372143561        297.19540126718914       297.2292307658546
4.8                       297.1715866894674        297.1719004495993        297.1749046890847        297.2091405209015
4.833333333333333         297.1515176213637        297.1518387250246        297.15488345466434       297.18952395892995
4.866666666666666         297.13192366527994       297.132252040632         297.135337563928         297.17038107994017
4.9                       297.112804821216         297.1131403964216        297.11626701687555       297.1517118839319
4.933333333333334         297.0941610891719        297.09450379239337       297.09767181350713       297.13351637090534
4.966666666666667         297.07599246914765       297.07634222854716       297.0795519538227        297.1157945408604
5                         297.05829896114324       297.0586557048832        297.0619074378223        297.09854639379705
