% Model:              thermal_design_01.mph
% Version:            COMSOL 6.2.0.290
% Date:               Oct 31 2025, 19:23
% Dimension:          1
% Nodes:              251
% Expressions:        1
% Description:        点结果图
% 时间 (s)                  温度
0                         308.11701009880886
0.02                      305.7506285232785
0.04                      307.17901863580784
0.06                      307.211572597536
0.08                      306.92930834269623
0.1                       306.16787314904315
0.12                      305.40643795539
0.14                      304.6449104449225
0.16                      303.8665204704364
0.18                      303.0881304959504
0.2                       302.3097405214643
0.22                      301.5313505469782
0.24                      300.75296057249216
0.26                      299.97457059800604
0.28                      299.2679136243572
0.3                       298.8107197882386
0.32                      298.3535259521199
0.34                      297.89633211600125
0.36                      297.43913827988257
0.38                      296.9819444437639
0.4                       296.5247506076453
0.42                      296.0675567715266
0.44                      295.610362935408
0.46                      295.1531690992893
0.48                      294.6959752631706
0.5                       294.238781427052
0.52                      293.7815875909333
0.54                      293.32439375481465
0.56                      293.00468757321283
0.58                      292.7560919549804
0.6                       292.5074963367479
0.62                      292.25890071851546
0.64                      292.010305100283
0.66                      291.7617094820506
0.68                      291.51311386381815
0.7000000000000001        291.2645182455857
0.72                      291.01592262735323
0.74                      290.7673270091208
0.76                      290.5187313908883
0.78                      290.27013577265586
0.8                       290.0215401544234
0.8200000000000001        289.7873758852886
0.84                      289.69088995058377
0.86                      289.59440401587887
0.88                      289.497918081174
0.9                       289.4014321464692
0.92                      289.3049462117643
0.9400000000000001        289.2084602770594
0.96                      289.11197434235453
0.98                      289.0154884076497
1                         288.9190024729448
1.02                      288.82251653823994
1.04                      288.72603060353504
1.06                      288.6295446688302
1.08                      288.53305873412535
1.1                       288.43657279942045
1.12                      288.34008686471554
1.1400000000000001        288.2436009300107
1.16                      288.14711499530586
1.18                      288.05062906060095
1.2                       287.9541431258961
1.22                      287.85765719119127
1.24                      287.76117125648636
1.26                      287.6646853217815
1.28                      287.5681993870767
1.3                       287.4717134523718
1.32                      287.3809885426615
1.34                      287.34522511441077
1.36                      287.30946168616003
1.3800000000000001        287.2736982579093
1.4000000000000001        287.23793482965857
1.42                      287.20217140140784
1.44                      287.1664079731571
1.46                      287.13064454490643
1.48                      287.09488111665564
1.5                       287.0591176884049
1.52                      287.0233542601542
1.54                      286.98759083190345
1.56                      286.9518274036527
1.58                      286.91606397540204
1.6                       286.8803005471513
1.62                      286.8445371189006
1.6400000000000001        286.8087736906498
1.6600000000000001        286.77301026239905
1.68                      286.7372468341483
1.7                       286.70148340589765
1.72                      286.6657199776469
1.74                      286.6299565493962
1.76                      286.59419312114545
1.78                      286.5584296928947
1.8                       286.522666264644
1.82                      286.4891265577642
1.84                      286.476801655718
1.86                      286.4644767536718
1.8800000000000001        286.4521518516256
1.9000000000000001        286.43982694957947
1.92                      286.42750204753327
1.94                      286.41517714548706
1.96                      286.40285224344086
1.98                      286.39052734139466
2                         286.37820243934846
2.02                      286.36587753730225
2.04                      286.3535526352561
2.06                      286.3412277332099
2.08                      286.3289028311637
2.1                       286.3165779291175
2.12                      286.3042530270713
2.14                      286.29192812502515
2.16                      286.27960322297895
2.18                      286.26727832093275
2.2                       286.25495341888654
2.22                      286.24262851684034
2.24                      286.2303036147942
2.2600000000000002        286.217978712748
2.2800000000000002        286.2056538107018
2.3000000000000003        286.1933289086556
2.32                      286.1818618504694
2.34                      286.1785788167317
2.36                      286.175295782994
2.38                      286.17201274925634
2.4                       286.1687297155187
2.42                      286.16544668178096
2.44                      286.1621636480433
2.46                      286.15888061430564
2.48                      286.155597580568
2.5                       286.1523145468303
2.52                      286.1490315130926
2.54                      286.14574847935495
2.56                      286.1424654456173
2.58                      286.13918241187963
2.6                       286.1358993781419
2.62                      286.13261634440425
2.64                      286.1293333106666
2.66                      286.1260502769289
2.68                      286.1227672431913
2.7                       286.11948420945356
2.72                      286.1162011757159
2.74                      286.11291814197824
2.7600000000000002        286.1096351082405
2.7800000000000002        286.10635207450287
2.8000000000000003        286.1030690407652
2.82                      286.1000850495976
2.84                      286.0999539921854
2.86                      286.0998229347733
2.88                      286.09969187736107
2.9                       286.0995608199489
2.92                      286.0994297625367
2.94                      286.09929870512457
2.96                      286.09916764771236
2.98                      286.0990365903002
3                         286.09890553288807
3.02                      286.0987744754759
3.04                      286.0986434180637
3.06                      286.09851236065157
3.08                      286.09838130323936
3.1                       286.0982502458272
3.12                      286.098119188415
3.14                      286.09798813100286
3.16                      286.09785707359066
3.18                      286.0977260161785
3.2                       286.0975949587663
3.22                      286.09746390135416
3.24                      286.09733284394196
3.2600000000000002        286.0972017865298
3.2800000000000002        286.0970707291176
3.3000000000000003        286.09693967170546
3.3200000000000003        286.09696448719785
3.34                      286.0984763654552
3.36                      286.0999882437126
3.38                      286.10150012196993
3.4                       286.1030120002273
3.42                      286.10452387848466
3.44                      286.106035756742
3.46                      286.1075476349994
3.48                      286.10905951325674
3.5                       286.1105713915141
3.52                      286.11208326977146
3.54                      286.1135951480288
3.56                      286.1151070262862
3.58                      286.11661890454354
3.6                       286.1181307828009
3.62                      286.11964266105826
3.64                      286.1211545393156
3.66                      286.122666417573
3.68                      286.12417829583035
3.7                       286.1256901740877
3.72                      286.12720205234507
3.74                      286.12871393060243
3.7600000000000002        286.1302258088598
3.7800000000000002        286.13173768711715
3.8000000000000003        286.1332495653745
3.8200000000000003        286.134792259537
3.84                      286.13664311552566
3.86                      286.138519857805
3.88                      286.14042248637514
3.9                       286.1423510012359
3.92                      286.1443054023875
3.94                      286.14628568982965
3.96                      286.1482918635626
3.98                      286.15032392358626
4                         286.1523818699006
4.0200000000000005        286.15446570250566
4.04                      286.15657542140144
4.0600000000000005        286.15871102658787
4.08                      286.1608725180651
4.1                       286.16305989583293
4.12                      286.16527315989157
4.14                      286.1675123102409
4.16                      286.1697773468809
4.18                      286.17206826981163
4.2                       286.1743850790331
4.22                      286.17672777454516
4.24                      286.179096356348
4.26                      286.1814908244416
4.28                      286.18391117882584
4.3                       286.18635741950084
4.32                      286.1888027348855
4.34                      286.1910058183362
4.36                      286.19321226554
4.38                      286.19542207649704
4.4                       286.1976352512071
4.42                      286.1998517896704
4.44                      286.2020716918868
4.46                      286.20429495785635
4.48                      286.206521587579
4.5                       286.20875158105486
4.5200000000000005        286.21098493828384
4.54                      286.2132216592659
4.5600000000000005        286.2154617440012
4.58                      286.2177051924896
4.6000000000000005        286.21995200473106
4.62                      286.22220218072573
4.64                      286.22445572047354
4.66                      286.2267126239745
4.68                      286.2289728912286
4.7                       286.2312365222358
4.72                      286.23350351699617
4.74                      286.23577387550966
4.76                      286.2380475977763
4.78                      286.2403246837961
4.8                       286.242605133569
4.82                      286.2448813877992
4.84                      286.24708541214244
4.86                      286.2492864502021
4.88                      286.25148450197804
4.9                       286.25367956747033
4.92                      286.25587164667894
4.94                      286.25806073960393
4.96                      286.2602468462452
4.98                      286.26242996660284
5                         286.26461010067675
