% Model:              thermal_design_point.mph
% Version:            COMSOL 6.2.0.290
% Date:               Nov 3 2025, 10:54
% Dimension:          1
% Nodes:              251
% Expressions:        4
% Description:        点结果图
% 时间 (s)                  温度                       温度                       温度                       温度
0                         303.1499999779515        303.14999998267376       303.1499999824942        303.1499999873341
0.02                      303.11988363467026       303.12515336215586       303.1254798226038        303.13018991713903
0.04                      303.0842600075235        303.09453098218927       303.0955725184782        303.10383948435924
0.06                      303.05731623519034       303.0703107617267        303.0717965578237        303.081357398247
0.08                      303.0390569068733        303.0524970950326        303.05415581596975       303.0627481284864
0.1                       303.01814327794          303.0318816371491        303.0334195166544        303.0415318839498
0.12                      302.9983456456349        303.0115262408371        303.0126570193069        303.01986312511843
0.14                      302.9796677300052        302.9914339271412        302.9918713523786        302.9977439777382
0.16                      302.9621095310508        302.9716046960615        302.97106251586956       302.97517444180914
0.18                      302.88949925597797       302.8982690164001        302.8974550045247        302.90132686496065
0.2                       302.81686205156393       302.82490736334967       302.8238219318594        302.827454566622
0.22                      302.7442248471499        302.7515457102993        302.75018885919405       302.75358226828337
0.24                      302.67158764273586       302.6781840572488        302.6765557865287        302.67970996994467
0.26                      302.5989504383218        302.6048224041984        302.60292271386334       302.605837671606
0.28                      302.5263132339078        302.53146075114796       302.52928964119803       302.5319653732674
0.3                       302.45367602949375       302.4580990980976        302.4556565685327        302.4580930749287
0.32                      302.3810388250797        302.38473744504716       302.3820234958673        302.38422077659004
0.34                      302.28698969637463       302.2904585322957        302.2878155649549        302.2898908106968
0.36                      302.192930542197         302.1961698256832        302.1935980005004        302.1955512661324
0.38                      302.0988713880194        302.10188111907075       302.09938043604586       302.10121172156795
0.4                       302.0048122338418        302.0075924124582        302.0051628715913        302.0068721770035
0.42                      301.91075307966423       301.91330370584575       301.9109453071368        301.9125326324391
0.44                      301.8166939254866        301.8190149992333        301.81672774268225       301.81819308787465
0.46                      301.722634771309         301.7247262926208        301.7225101782277        301.7238535433102
0.48                      301.62857561713145       301.63043758600827       301.62829261377317       301.6295139987457
0.5                       301.53451646295383       301.5361488793958        301.53407504931863       301.53517445418134
0.52                      301.4404573087762        301.4418601727833        301.4398574848641        301.44083490961685
0.54                      301.34639815459866       301.3475714661708        301.34563992040955       301.3464953650524
0.56                      301.252339000421         301.2532827595583        301.251422355955         301.252155820488
0.58                      301.15827984624343       301.15899405294584       301.15720479150053       301.15781627592355
0.6                       301.0642206920658        301.06470534633337       301.06298722704594       301.0634767313591
0.62                      300.9701615378882        300.97041663972084       300.9687696625914        300.9691371867946
0.64                      300.87610238371064       300.87612793310836       300.8745520981369        300.87479764223025
0.66                      300.79803573356503       300.79802829770296       300.796508175264         300.79675936028525
0.68                      300.7199760591927        300.7199357238114        300.71847130717475       300.718728188791
0.7000000000000001        300.6419163848203        300.64184314991985       300.6404344390855        300.64069701729676
0.72                      300.5638567104479        300.56375057602827       300.5623975709962        300.5626658458025
0.74                      300.4857970360755        300.4856580021367        300.48436070290694       300.4846346743082
0.76                      300.40773736170314       300.4075654282451        300.40632383481767       300.40660350281394
0.78                      300.32967768733073       300.3294728543536        300.3282869667284        300.3285723313196
0.8                       300.2516180129583        300.251380280462         300.2502500986391        300.25054115982533
0.8200000000000001        300.17355833858596       300.1732877065705        300.17221323054986       300.1725099883311
0.84                      300.0954986642136        300.0951951326789        300.09417636246064       300.09447881683684
0.86                      300.0174389898412        300.0171025587873        300.0161394943713        300.01644764534257
0.88                      299.9393793154688        299.9390099848958        299.9381026262821        299.9384164738483
0.9                       299.86131964109643       299.8609174110042        299.86006575819283       299.860385302354
0.92                      299.783259966724         299.7828248371126        299.78202889010356       299.78235413085974
0.9400000000000001        299.7052002923516        299.70473226322105       299.7039920220143        299.70432295936547
0.96                      299.62714061797925       299.6266396893295        299.625955153925         299.6262917878712
0.98                      299.5490809436069        299.54854711543794       299.54791828583575       299.5482606163769
1                         299.4710212692345        299.4704545415464        299.4698814177465        299.47022944488265
1.02                      299.3929615948621        299.39236196765484       299.3918445496572        299.3921982733884
1.04                      299.3149019204897        299.31426939376325       299.31380768156794       299.3141671018941
1.06                      299.2368422461173        299.2361768198717        299.23577081347867       299.2361359303998
1.08                      299.1587825717449        299.15808424598015       299.1577339453894        299.15810475890555
1.1                       299.08072289737254       299.07999167208857       299.0796970773001        299.0800735874113
1.12                      299.0026632230002        299.00189909819704       299.00166020921085       299.002042415917
1.1400000000000001        298.9246035486278        298.92380652430546       298.92362334112164       298.92401124442273
1.16                      298.86609723404194       298.8653065191729        298.8651424266287        298.8656188403587
1.18                      298.8075994484397        298.80681506012644       298.80667004225074       298.80723500253214
1.2                       298.7491016628374        298.7483236010799        298.7481976578727        298.74885116470557
1.22                      298.6906038772351        298.6898321420334        298.68972527349473       298.690467326879
1.24                      298.6321060916328        298.63134068298695       298.6312528891167        298.63208348905243
1.26                      298.5736083060305        298.57284922394047       298.5727805047387        298.57369965122587
1.28                      298.5151105204282        298.514357764894         298.51430812036074       298.5153158133993
1.3                       298.4566127348259        298.45586630584745       298.4558357359827        298.45693197557273
1.32                      298.3981149492236        298.397374846801         298.3973633516047        298.3985481377462
1.34                      298.3396171636213        298.3388833877545        298.3388909672267        298.3401642999196
1.36                      298.281119378019         298.280391928708         298.2804185828487        298.2817804620931
1.3800000000000001        298.2226215924167        298.2219004696615        298.2219461984707        298.2233966242665
1.4000000000000001        298.1641238068144        298.163409010615         298.1634738140927        298.16501278643995
1.42                      298.1056260212121        298.1049175515685        298.10500142971466       298.1066289486134
1.44                      298.0471282356098        298.04642609252204       298.0465290453367        298.0482451107868
1.46                      297.9886304500075        297.98793463347556       297.9880566609587        297.98986127296024
1.48                      297.9301326644052        297.929443174429         297.9295842765807        297.9314774351337
1.5                       297.8716348788029        297.87095171538255       297.8711118922027        297.87309359730716
1.52                      297.8131370932006        297.81246025633607       297.8126395078247        297.81470975948054
1.54                      297.7546393075983        297.7539687972896        297.7541671234467        297.75632592165397
1.56                      297.696141521996         297.6954773382431        297.6956947390687        297.69794208382746
1.58                      297.6376437363938        297.6369858791966        297.63722235469066       297.6395582460009
1.6                       297.5791459507915        297.5784944201501        297.5787499703127        297.58117440817426
1.62                      297.5206481651892        297.5200029611036        297.52027758593465       297.52279057034775
1.6400000000000001        297.4621503795869        297.46151150205714       297.4618052015567        297.4644067325212
1.6600000000000001        297.4186951814584        297.4180653329137        297.41836737434454       297.42112645095165
1.68                      297.37524654475897       297.3746257263781        297.37493610505857       297.37785275740504
1.7                       297.33179790805946       297.33118611984236       297.33150483577265       297.3345790638584
1.72                      297.28834927135995       297.28774651330673       297.2880735664867        297.2913053703118
1.74                      297.24490063466044       297.24430690677104       297.2446422972007        297.2480316767652
1.76                      297.20145199796093       297.20086730023536       297.2012110279147        297.20475798321866
1.78                      297.1580033612614        297.1574276936997        297.1577797586288        297.16148428967205
1.8                       297.1145547245619        297.11398808716405       297.11434848934283       297.11821059612544
1.82                      297.0711060878624        297.0705484806283        297.07091722005686       297.0749369025788
1.84                      297.0276574511629        297.0271088740927        297.0274859507709        297.0316632090322
1.86                      296.98420881446344       296.983669267557         296.98405468148496       296.9883895154856
1.8800000000000001        296.94076017776393       296.9402296610213        296.940623412199         296.945115821939
1.9000000000000001        296.8973115410644        296.8967900544856        296.897192142913         296.9018421283924
1.92                      296.8538629043649        296.85335044794994       296.85376087362704       296.8585684348458
1.94                      296.8104142676654        296.8099108414143        296.8103296043411        296.8152947412992
1.96                      296.7669656309659        296.76647123487857       296.76689833505515       296.77202104775256
1.98                      296.7235169942664        296.72303162834294       296.7234670657692        296.728747354206
2                         296.6800683575669        296.67959202180725       296.6800357964832        296.6854736606594
2.02                      296.6366197208674        296.63615241527157       296.6366045271973        296.6421999671128
2.04                      296.59317108416786       296.5927128087359        296.5931732579113        296.5989262735662
2.06                      296.5497224474684        296.54927320220025       296.5497419886254        296.55565258001957
2.08                      296.5062738107689        296.5058335956645        296.50631071933935       296.51237888647296
2.1                       296.46282517406934       296.4623939891289        296.46287945005344       296.46910519292635
2.12                      296.4193765373699        296.4189543825932        296.41944818076746       296.4258314993798
2.14                      296.3759279006704        296.3755147760575        296.37601691148154       296.38255780583313
2.16                      296.3432805609713        296.3428747440305        296.3433884256232        296.3501630339254
2.18                      296.3106379326919        296.3102394226718        296.31076465183287       296.31777300729647
2.2                       296.2779953044125        296.27760410131316       296.27814087804256       296.2853829806675
2.22                      296.2453526761331        296.2449687799545        296.24551710425226       296.2529929540386
2.24                      296.2127100478537        296.2123334585958        296.21289333046195       296.2206029274097
2.2600000000000002        296.1800674195743        296.17969813723715       296.18026955667165       296.1882129007807
2.2800000000000002        296.1474247912949        296.1470628158785        296.14764578288134       296.15582287415174
2.3000000000000003        296.1147821630155        296.1144274945198        296.11502200909104       296.1234328475228
2.32                      296.0821395347361        296.0817921731611        296.08239823530073       296.0910428208939
2.34                      296.0494969064567        296.0491568518024        296.04977446151037       296.05865279426496
2.36                      296.0168542781773        296.0165215304438        296.0171506877201        296.02626276763596
2.38                      295.9842116498979        295.9838862090851        295.98452691392976       295.99387274100707
2.4                       295.9515690216185        295.9512508877264        295.95190314013945       295.9614827143781
2.42                      295.9189263933391        295.91861556636775       295.9192793663492        295.9290926877492
2.44                      295.8862837650597        295.8859802450091        295.88665559255884       295.8967026611202
2.46                      295.8536411367803        295.8533449236504        295.85403181876853       295.8643126344913
2.48                      295.8209985085009        295.82070960229174       295.8214080449783        295.83192260786234
2.5                       295.7883558802215        295.7880742809331        295.7887842711879        295.7995325812334
2.52                      295.7557132519421        295.7554389595744        295.7561604973976        295.76714255460445
2.54                      295.7230706236627        295.72280363821574       295.7235367236073        295.7347525279755
2.56                      295.6904279953833        295.69016831685707       295.690912949817         295.70236250134656
2.58                      295.6577853671039        295.6575329954984        295.6582891760267        295.6699724747176
2.6                       295.6251427388245        295.62489767413973       295.6256654022364        295.63758244808866
2.62                      295.5925001105451        295.592262352781         295.5930416284461        295.6051924214597
2.64                      295.55985748226567       295.55962703142234       295.5604178546558        295.5728023948308
2.66                      295.5304771812161        295.5302534339175        295.5310585196457        295.5437061748395
2.68                      295.50134931034984       295.50113221990836       295.501951778205         295.51486482082424
2.7                       295.4724725014033        295.4722620213844        295.47309626118465       295.4862769513185
2.72                      295.44384675437647       295.44364283834557       295.4444919685845        295.4579425663222
2.74                      295.4154720692694        295.4152746707919        295.4161389004046        295.42986166583535
2.7600000000000002        295.387348446082         295.38715751872337       295.3880370566449        295.4020342498581
2.7800000000000002        295.35947588481434       295.35929138214004       295.3601864373055        295.3744603183903
2.8000000000000003        295.33185438546644       295.3316762610419        295.33258704238636       295.347139871432
2.82                      295.30448394803824       295.3043121554289        295.30523887188747       295.3200729089832
2.84                      295.27736457252973       295.277199065301         295.2781419258088        295.29325943104385
2.86                      295.250496258941         295.2503369906583        295.25129620415044       295.266699437614
2.88                      295.22387900727193       295.2237259315008        295.22470170691224       295.24039292869367
2.9                       295.19751281752264       295.1973658878284        295.19835843409436       295.21433990428284
2.92                      295.17139768969304       295.17125685964123       295.17226638569673       295.1885403643815
2.94                      295.1455336237832        295.1453988469392        295.1464255617193        295.16299430898965
2.96                      295.11992061979305       295.11979184972233       295.1208359621622        295.13770173810735
2.98                      295.0945586777226        295.0944358679906        295.09549758702525       295.11266265173447
3                         295.0694477975719        295.069330901744         295.07041043630863       295.08787704987105
3.02                      295.0445879793409        295.04447695098264       295.0455745100122        295.0633449325172
3.04                      295.01997922302974       295.0198740157064        295.02098980813605       295.0390662996728
3.06                      294.9956215286382        294.99552209591536       294.99665633068014       295.0150411513379
3.08                      294.97151489616635       294.97142119160947       294.97257407764454       294.99126948751257
3.1                       294.94765932561427       294.94757130278873       294.94874304902913       294.9677513081967
3.12                      294.924054816982         294.9239724294531        294.925163244834         294.94448661339027
3.14                      294.90070137026936       294.9006245716027        294.9018346650591        294.9214754030933
3.16                      294.8772909469693        294.87721973418934       294.8784517810527        294.8984186054764
3.18                      294.85410775039065       294.8540420804254        294.855296480474         294.8755921509881
3.2                       294.83115190972876       294.8310917394883        294.8323688914659        294.8529961650632
3.22                      294.80842342498363       294.8083687113778        294.8096690140283        294.83063064770175
3.24                      294.78592229615526       294.785872996094         294.7871968481613        294.8084955989036
3.2600000000000002        294.76364852324366       294.763604593637         294.7649523938648        294.78659101866896
3.2800000000000002        294.7416021062488        294.7415635040067        294.74293565113885       294.76491690699766
3.3000000000000003        294.7197830451708        294.7197497272031        294.7211466199835        294.74347326388977
3.3200000000000003        294.6981913400095        294.69816326322626       294.6995853003986        294.7222600893453
3.34                      294.67682699076505       294.67680411207607       294.6782516923843        294.70127738336424
3.36                      294.65568999743726       294.6556722737527        294.65714579594055       294.68052514594655
3.38                      294.6347803600263        294.63476774825597       294.6362676110673        294.66000337709227
3.4                       294.61409807853215       294.614090535586         294.6156171377647        294.63971207680135
3.42                      294.59364315295477       294.5936406357428        294.59519437603257       294.6196512450739
3.44                      294.5734155832941        294.57341804872624       294.574999325871         294.5998208819098
3.46                      294.5534153695502        294.55342277453644       294.5550319872799        294.58022098730913
3.48                      294.5336425117231        294.5336548131733        294.53529236025946       294.5608515612719
3.5                       294.5140970098128        294.51411416463696       294.5157804448095        294.541712603798
3.52                      294.49477886381925       294.4948008289273        294.49649624093007       294.5228041148875
3.54                      294.4756880737425        294.4757148060444        294.47743974862124       294.50412609454037
3.56                      294.45682463958246       294.45685609598814       294.458610967883         294.4856785427567
3.58                      294.43818856133925       294.4382246987587        294.4400098987152        294.4674614595364
3.6                       294.4197798390128        294.41982061435596       294.42163654111795       294.44947484487955
3.62                      294.40159847260304       294.4016438427799        294.4034908950913        294.4317186987861
3.64                      294.38364446211017       294.3836943840306        294.38557296063516       294.4141930212559
3.66                      294.36552605575554       294.365580763759         294.3674931732888        294.3965088540699
3.68                      294.3476046926095        294.3476641650727        294.3496109540536        294.37902505889724
3.7                       294.329880536978         294.3299447521613        294.3319264663182        294.3617417988722
3.72                      294.312353588861         294.31242252502483       294.3144397100825        294.3446590739948
3.74                      294.2950238482586        294.29509748366314       294.29715068534654       294.3277768842652
3.7600000000000002        294.2778913151707        294.2779696280764        294.2800593921103        294.3110952296831
3.7800000000000002        294.26095598959733       294.2610389582645        294.26316583037374       294.2946141102487
3.8000000000000003        294.2442178715385        294.24430547422753       294.246470000137         294.278333525962
3.8200000000000003        294.2276769609942        294.2277691759654        294.2299719013999        294.26225347682293
3.84                      294.21133325796444       294.21143006347813       294.21367153416253       294.2463739628315
3.86                      294.19518676244917       294.19528813676584       294.19756889842495       294.2306949839878
3.88                      294.1792374744485        294.1793433958283        294.18166399418703       294.2152165402917
3.9                       294.16348539396233       294.1635958406657        294.1659568214489        294.1999386317433
3.92                      294.14793052099066       294.148045471278         294.15044738021044       294.18486125834255
3.94                      294.1325728555335        294.1326922876652        294.13513567047175       294.16998442008946
3.96                      294.11741239759095       294.11753628982717       294.1200216922328        294.15530811698403
3.98                      294.10244914716293       294.1025774777641        294.10510544549356       294.1408323490262
4                         294.0876831042494        294.0878158514759        294.09038693025406       294.1265571162161
4.0200000000000005        294.0731142688504        294.07325141096254       294.0758661465143        294.1124824185536
4.04                      294.058742640966         294.0588841562241        294.0615430942742        294.0986082560388
4.0600000000000005        294.0445682205961        294.0447140872605        294.0474177735339        294.08493462867165
4.08                      294.03059100774067       294.03074120407183       294.03349018429327       294.0714615364522
4.1                       294.01681100239983       294.01696550665804       294.0197603265524        294.0581889793804
4.12                      294.00322820457353       294.00338699501907       294.0062282003113        294.04511695745623
4.14                      293.9898426142617        293.99000566915504       293.99289380556985       294.0322454706797
4.16                      293.9761010495571        293.97626889835374       293.9792059961228        294.0190168212724
4.18                      293.9625138886258        293.9626865522361        293.9656732719516        294.0059455538455
4.2                       293.9490813634797        293.94925886258295       293.9522958642142        293.9930319023049
4.22                      293.9358034741189        293.9359858293942        293.9390737729106        293.9802758666507
4.24                      293.92268022054344       293.92286745266995       293.9260069980409        293.9676774468828
4.26                      293.9097116027532        293.9099037324102        293.9130955396051        293.9552366430013
4.28                      293.8968976207482        293.8970946686148        293.90033939760303       293.94295345500603
4.3                       293.88423827452846       293.8844402612838        293.8877385720349        293.9308278828972
4.32                      293.871733564094         293.87194051041735       293.8752930629006        293.91885992667466
4.34                      293.8593834894447        293.85959541601534       293.86300287020015       293.90704958633853
4.36                      293.84718805058077       293.8474049780777        293.8508679939336        293.8953968618886
4.38                      293.83514724750205       293.8353691966046        293.83888843410085       293.8839017533251
4.4                       293.8232610802086        293.8234880715959        293.82706419070195       293.87256426064795
4.42                      293.81152954870043       293.8117616030516        293.81539526373695       293.8613843838571
4.44                      293.7999526529775        293.8001897909718        293.80388165320574       293.8503621229526
4.46                      293.78853039303976       293.78877263535634       293.79252335910843       293.83949747793446
4.48                      293.77726276888734       293.7775101362054        293.78132038144497       293.82879044880264
4.5                       293.7661497805202        293.766402293519         293.7702727202153        293.8182410355571
4.5200000000000005        293.75519142793826       293.7554491072969        293.75938037541954       293.807849238198
4.54                      293.74438771114166       293.74465057753935       293.7486433470576        293.79761505672514
4.5600000000000005        293.7337386301303        293.73400670424616       293.73806163512955       293.78753849113866
4.58                      293.72324418490416       293.72351748741744       293.72763523963533       293.7776195414385
4.6000000000000005        293.71290437546327       293.7131829270532        293.71736416057496       293.7678582076247
4.62                      293.70271920180767       293.70300302315337       293.70724839794843       293.75825448969726
4.64                      293.6926886639373        293.692977775718         293.69728795175575       293.74880838765614
4.66                      293.6822961472884        293.6825912511361        293.68696791695186       293.7389943190193
4.68                      293.6720182921671        293.6723194614514        293.67676335660207       293.72929719809764
4.7                       293.6618553152485        293.66216262305335       293.66667448666465       293.7197172453274
4.72                      293.65180721653263       293.6521207359418        293.6567013071396        293.7102544607086
4.74                      293.6418739960195        293.64219380011696       293.6468438180268        293.7009088442412
4.76                      293.632055653709         293.63238181557864       293.6371020193263        293.6916803959253
4.78                      293.6223521896013        293.622684782327         293.627475911038         293.6825691157608
4.8                       293.61276360369624       293.613102700362         293.61796549316216       293.6735750037478
4.82                      293.6032898959939        293.6036355696835        293.6085707656985        293.6646980598863
4.84                      293.5939310664943        293.59428339029165       293.59929172864724       293.65593828417616
4.86                      293.5846871151973        293.5850461621865        293.59012838200823       293.64729567661755
4.88                      293.5755580421031        293.57592388536784       293.5810807257816        293.63877023721034
4.9                       293.5665438472116        293.5669165598358        293.57214875996715       293.63036196595453